                         Program Version 5.0.3 -  RELEASE  -
|  1> # input to generate an atomic fitting density for Ir
|  2> # this file is used internally by ORCA
|  3> #
|  4> # atomic ground state (S=4): 1s2 2s2 2p6 3s2 3p6 4s2 3d10 4p6 5s2 4d10 5p6 6s2 4f14 5d7
|  5> #
|  6> ! RHF AllowRHF def2-SVP def2/J  NoMulliken NoLoewdin NoMayer NoPrintMOs
|  7>
|  8> %output print[p_atomdensfit] 2 end
|  9>
| 10> %scf
| 11>   guess hcore
| 12>   maxiter 1000
| 13>   maxdisk 500000
| 14>   SCFMode Conventional
| 15>   lshift 1.000000
| 16>   hftyp rohf
| 17>   rohf_case sahf
| 18>   rohf_numop   2
| 19>   rohf_norb[1] 5
| 20>   rohf_nel[1]  7
| 21> end
| 22>
| 23> %basis
| 24>   NewECP 77
| 25>     N_core 60
| 26>     lmax f
| 27>     s 3
| 28>       1      13.6522026000    732.2691998000  2
| 29>       2       6.8261013000     26.4847209000  2
| 30>       3       3.0340719000    -21.5310311000  2
| 31>     p 3
| 32>       1      10.2798684000    299.4894736000  2
| 33>       2       5.1399341000     26.4662335000  2
| 34>       3       3.0340719000    -21.5310311000  2
| 35>     d 3
| 36>       1       7.3498590000    124.4575945000  2
| 37>       2       3.6749295000     14.0359952000  2
| 38>       3       3.0340719000    -21.5310311000  2
| 39>     f 1
| 40>       1       3.0340719000     21.5310311000  2
| 41>   end
| 42>   NewGTO 77
| 43>     s 3
| 44>      1      30.0000000000      0.9616390282
| 45>      2      27.0000000000     -1.4589919579
| 46>      3      13.9619739110      1.4725632748
| 47>     s 1
| 48>      1       5.3956977802      1.0000000000
| 49>     s 1
| 50>      1       1.2149128721      1.0000000000
| 51>     s 1
| 52>      1       0.5588574376      1.0000000000
| 53>     s 1
| 54>      1       0.1409797431      1.0000000000
| 55>     s 1
| 56>      1       0.0500219250      1.0000000000
| 57>     p 4
| 58>      1      15.9026641430     -0.3696129600
| 59>      2      14.4158306980      0.5328002574
| 60>      3       5.7597608991     -0.6875844229
| 61>      4       1.5008913108      1.2595095548
| 62>     p 1
| 63>      1       0.7234803596      1.0000000000
| 64>     p 1
| 65>      1       0.3278598033      1.0000000000
| 66>     p 1
| 67>      1       0.0560000000      1.0000000000
| 68>     d 4
| 69>      1       8.6321692504      0.0580379198
| 70>      2       6.5898192302     -0.1340826234
| 71>      3       1.5808379663      0.4261153634
| 72>      4       0.7182783490      0.6598797561
| 73>     d 1
| 74>      1       0.3057185200      1.0000000000
| 75>     d 1
| 76>      1       0.1182707188      1.0000000000
| 77>     f 1
| 78>      1       0.6100800000      1.0000000000
| 79>   end
| 80>   NewAuxGTO 77
| 81>     S 1
| 82>      1 1310.72 1.0
| 83>     S 1
| 84>      1  655.36 1.0
| 85>     S 1
| 86>      1  327.68 1.0
| 87>     S 1
| 88>      1  163.84 1.0
| 89>     S 1
| 90>      1   81.82 1.0
| 91>     S 1
| 92>      1   40.96 1.0
| 93>     S 1
| 94>      1   20.48 1.0
| 95>     S 1
| 96>      1   10.24 1.0
| 97>     S 1
| 98>      1    5.12 1.0
| 99>     S 1
|100>      1    2.56 1.0
|101>     S 1
|102>      1    1.28 1.0
|103>     S 1
|104>      1    0.64 1.0
|105>     S 1
|106>      1    0.32 1.0
|107>     S 1
|108>      1    0.16 1.0
|109>     S 1
|110>      1    0.08 1.0
|111>     S 1
|112>      1    0.04 1.0
|113>     S 1
|114>      1    0.02 1.0
|115>     S 1
|116>      1    0.01 1.0
|117>   end
|118> end
|119>
|120> * xyz 0 4
|121> 77  0.0 0.0 0.0
|122> *
|123>
|124>
|125>                          ****END OF INPUT****

CARTESIAN COORDINATES (ANGSTROEM)
---------------------------------
  Ir     0.000000    0.000000    0.000000

 Total Charge           Charge          ....    0
 Multiplicity           Mult            ....    4
 Number of Electrons    NEL             ....   17
 Basis Dimension        Dim             ....   40

ORBITAL ENERGIES
----------------

  NO   OCC          E(Eh)            E(eV)
   0   2.0000      -5.022608      -136.6721
   1   2.0000      -3.128791       -85.1387
   2   2.0000      -3.123800       -85.0029
   3   2.0000      -3.121417       -84.9381
   4   2.0000      -1.066376       -29.0176
   5   1.4000      -1.068075       -29.0638
   6   1.4000      -0.709823       -19.3153
   7   1.4000      -0.316491        -8.6122
   8   1.4000      -0.308390        -8.3917
   9   1.4000      -0.304679        -8.2907
  10   0.0000      -0.618154       -16.8208
  11   0.0000      -0.611662       -16.6442
  12   0.0000      -0.597705       -16.2644
  13   0.0000       0.057494         1.5645
  14   0.0000       0.174070         4.7367

FINAL SINGLE POINT ENERGY      -101.765341246549

DIPOLE MOMENT
-------------
                                X             Y             Z
Electronic contribution:      0.00000      -0.00000      -0.00000
Nuclear contribution   :      0.00000       0.00000       0.00000
                        -----------------------------------------
Total Dipole Moment    :      0.00000      -0.00000      -0.00000
                        -----------------------------------------
Magnitude (a.u.)       :      0.00000
Magnitude (Debye)      :      0.00000

Rotational constants in cm-1:     0.000000     0.000000     0.000000
Rotational constants in MHz :     0.000000     0.000000     0.000000

                             ****ORCA TERMINATED NORMALLY****
TOTAL RUN TIME: 0 days 0 hours 0 minutes 2 seconds 597 msec
